/*--------------------------------*- C++ -*----------------------------------*\
  =========                 |
  \\      /  F ield         | OpenFOAM: The Open Source CFD Toolbox
   \\    /   O peration     | Website:  https://openfoam.org
    \\  /    A nd           | Version:  8
     \\/     M anipulation  |
\*---------------------------------------------------------------------------*/
FoamFile
{
    version     2.0;
    format      ascii;
    class       volScalarField;
    location    "0";
    object      Psi;
}
// * * * * * * * * * * * * * * * * * * * * * * * * * * * * * * * * * * * * * //

dimensions      [0 0 0 0 0 0 0];

internalField   nonuniform List<scalar> 
16384
(
-0.5477233720356959
-0.5477246682655305
-0.5477257817785329
-0.5477189671753259
-0.5477223458636306
-0.5477205793959388
-0.5477261619127423
-0.5477209400471486
-0.5477179490604241
-0.5477268742953713
-0.547718307653751
-0.5477227712172907
-0.5477262354937285
-0.5477236919411986
-0.5477198463838706
-0.547718211650368
-0.5477266697158024
-0.5477185688073002
-0.5477274497654431
-0.5477218655577105
-0.5477186942887835
-0.5477232036832049
-0.5477216555824108
-0.5477267581575304
-0.5477228873991279
-0.5477227123553371
-0.5477210640833368
-0.5477226559392324
-0.5477251950837037
-0.5477247894318397
-0.5477189657321508
-0.5477230414297674
-0.5477183513308878
-0.5477209971469513
-0.5477164317392417
-0.5477204251841826
-0.5477207077425251
-0.5477158153887501
-0.5477157918881994
-0.5477102663138305
-0.5476971745761994
-0.5476814644167214
-0.547667925393386
-0.547629967140115
-0.5475763035031179
-0.5474969885049014
-0.5473636446680383
-0.5471733796409384
-0.5468528294120091
-0.5463756501586196
-0.5456093569128221
-0.5444251263789147
-0.5425826134851081
-0.5397146406193376
-0.5352539292990967
-0.5283645550760668
-0.5177651512604263
-0.5016176306338154
-0.47734271933713385
-0.44157162923028376
-0.3904175268654129
-0.32027734786703177
-0.2294779184648256
-0.12027039201511794
3.2581162764679044e-07
0.12027274997114264
0.22947175036456183
0.32028256436717084
0.3904174540739546
0.4415705282753015
0.47733634426060745
0.5016143672737229
0.5177687819336528
0.5283609753585495
0.5352554951373757
0.5397146865999441
0.5425793904938913
0.5444254368422528
0.5456140629252436
0.5463753298662012
0.5468592982698057
0.5471700005290256
0.5473631751197425
0.5474924101158821
0.5475799980960067
0.5476274149659932
0.5476654588606041
0.5476884856196518
0.5476966906351145
0.5477059638966414
0.5477082252522745
0.5477162237022967
0.5477205464260722
0.5477149843485458
0.5477230607861983
0.5477210193461429
0.5477173132848383
0.5477246665703494
0.5477247406143454
0.5477246483979228
0.5477254561917377
0.5477243663320069
0.5477232795717101
0.5477176740105052
0.5477193843449306
0.5477240754150069
0.5477271251709082
0.547722459814007
0.5477247410173693
0.54771964826881
0.5477253938961226
0.5477246529911215
0.5477242924975941
0.5477192759289446
0.5477217492115246
0.5477180361163146
0.547723665610528
0.5477270473283784
0.5477248867275127
0.5477274764932892
0.5477268550644485
0.5477180321645883
0.5477242470789692
0.5477274998249816
0.5477244419959082
0.5477248241758252
0.5477266908793936
0.547723758239939
-0.54772165187549
-0.5477244084101092
-0.5477211257099079
-0.5477181550392286
-0.5477207071004937
-0.5477240165500811
-0.5477178505290805
-0.547719492583494
-0.5477245487257302
-0.5477263943335957
-0.5477260466028974
-0.5477206620417447
-0.5477256506973643
-0.5477226236217652
-0.5477199606313592
-0.5477242637406107
-0.5477241145518241
-0.5477217198403905
-0.5477243421191812
-0.5477176684803395
-0.5477248552877957
-0.5477202468362193
-0.5477190865248748
-0.5477206551834909
-0.547719102360841
-0.5477249974533471
-0.5477273676910394
-0.5477266268933725
-0.5477255103762982
-0.5477252476437174
-0.5477270016374021
-0.5477200730927081
-0.5477170327032298
-0.5477217529853757
-0.5477163813051512
-0.5477179948959822
-0.5477201698923856
-0.5477180298319361
-0.5477088016843494
-0.5477082945395503
-0.54769611637029
-0.5476855558855543
-0.5476603325057582
-0.5476307120597111
-0.547573198542825
-0.547492665272565
-0.5473723294996127
-0.5471702800804649
-0.5468616617430335
-0.5463663839555531
-0.5456077713906172
-0.5444242442796542
-0.542577571196799
-0.5397077905515134
-0.5352510230287164
-0.528361475745893
-0.5177618676722752
-0.5016144519499334
-0.47734323771705517
-0.4415691975842772
-0.3904225729680709
-0.3202757954642898
-0.22946960678897382
-0.12027215371437062
-4.412085765093286e-06
0.12026643142012995
0.22946825915097444
0.32027854244414017
0.39041382077764936
0.44157163152888146
0.4773372404141691
0.5016190105046667
0.5177667889648887
0.5283587083185646
0.5352531373813068
0.5397104288411984
0.5425780197482355
0.544423957360518
0.5456131366925199
0.546366789761457
0.5468612776808713
0.5471637233107274
0.5473680470796882
0.5475003415226694
0.547581768792873
0.5476273005592649
0.5476629346748295
0.5476848560352052
0.5477003583735482
0.5477074504147245
0.5477095508737001
0.5477176966033469
0.5477211898364207
0.5477239712553529
0.5477230057109794
0.5477260941632812
0.5477188712506814
0.5477263089445764
0.5477249540231688
0.5477257700785446
0.5477249741134405
0.5477227316019778
0.5477209594272464
0.5477195383743739
0.5477185003987172
0.5477193453881822
0.5477181458964351
0.5477190603861861
0.547719192397129
0.5477261726451925
0.5477216490843656
0.5477179428729226
0.5477177695091647
0.5477229063901071
0.5477219279699889
0.5477177128342682
0.5477207798950576
0.5477266371940366
0.5477192431371216
0.5477237449935455
0.5477214943921747
0.547719100513974
0.5477228069812052
0.5477185962397622
0.5477207177170427
0.5477187897332468
0.5477258176092007
0.5477267676829942
-0.547717788002209
-0.5477255277785588
-0.5477197059867633
-0.5477244559507455
-0.5477184561189942
-0.5477177195425877
-0.5477243384080586
-0.5477216745245316
-0.5477237997704277
-0.5477247744388246
-0.5477241355401762
-0.5477219131824411
-0.5477191160119509
-0.5477211473814103
-0.5477245568278849
-0.5477217939059371
-0.5477271835917477
-0.5477241603342835
-0.5477193802685967
-0.5477215293548627
-0.5477229046686365
-0.5477223065922089
-0.5477205365654321
-0.5477238826522548
-0.5477246073170517
-0.5477215160971649
-0.5477239537242625
-0.547723677583381
-0.5477230322954428
-0.547726617209315
-0.5477200503516452
-0.5477260137209128
-0.5477225748203978
-0.5477179003849909
-0.5477174522182288
-0.5477181453000052
-0.547717790962649
-0.5477168772086934
-0.5477106748098154
-0.5477062968337582
-0.547698183933467
-0.5476825312653884
-0.5476607872209631
-0.5476295688410149
-0.5475796733954854
-0.5474962221878049
-0.5473662764537648
-0.547164536614055
-0.5468554377409373
-0.5463733391795808
-0.5456150867097739
-0.5444255947271371
-0.5425830177281802
-0.5397129299213049
-0.5352538361298226
-0.5283585363054554
-0.5177676630673408
-0.5016172072343102
-0.47733708489710813
-0.4415737558977166
-0.3904182538853269
-0.3202803556685404
-0.22946916592093813
-0.1202719746413127
-2.1209899084862985e-06
0.12027139365049677
0.2294770086101748
0.32027995298623607
0.39042068085602627
0.44156866461695177
0.47734398535584766
0.5016202789032183
0.5177609057001994
0.5283641211344888
0.5352568816871687
0.5397070946496435
0.5425863710107768
0.5444317069168314
0.5456101793461681
0.5463689375932858
0.5468572921924523
0.5471679411194499
0.5473659301584016
0.5474996141720799
0.5475773704943875
0.547627753145633
0.5476633199275915
0.5476831573867875
0.547702491694571
0.5477077909871606
0.5477115618844633
0.5477114141260536
0.5477219628987969
0.5477208229316266
0.5477185170173806
0.5477202835093239
0.5477191261525542
0.5477233994867169
0.5477198080974688
0.5477197218228071
0.5477250909304783
0.5477179784864016
0.5477222305381324
0.5477190074516659
0.5477243035478465
0.5477229771029005
0.5477225393003512
0.5477249624353105
0.5477207972461272
0.5477223802639758
0.5477185027366046
0.5477266345085935
0.5477238332117882
0.5477176390923666
0.5477224404798912
0.5477212961131566
0.5477238373092569
0.5477212002484559
0.5477220040464169
0.5477244965101267
0.5477252343613738
0.5477242147090958
0.5477273346227439
0.5477269217065336
0.5477252580259963
0.5477209264113714
0.5477228248877308
0.547727116519055
-0.5477251446192342
-0.5477210319580558
-0.5477196727167947
-0.5477196144859525
-0.5477231367217934
-0.5477201652009307
-0.5477183665026333
-0.5477208165768676
-0.547725107930577
-0.5477249295277244
-0.5477219116658032
-0.5477263540713314
-0.547724954139531
-0.5477238639468627
-0.5477191378789606
-0.5477212729452813
-0.547726952280739
-0.5477220191723212
-0.5477244476392323
-0.5477241897655425
-0.5477253747530856
-0.5477251217873431
-0.5477251581839574
-0.5477199404449314
-0.5477251065106753
-0.5477270299736062
-0.5477267094679399
-0.5477178097726435
-0.5477218992657263
-0.5477204743048535
-0.5477204791624071
-0.5477226166702751
-0.5477191178914415
-0.5477234188914403
-0.5477228016595742
-0.5477190250452798
-0.5477138021481557
-0.5477193565366552
-0.5477125232364359
-0.5477101558138916
-0.5476937918610444
-0.5476866973296971
-0.547663432010217
-0.5476310373206457
-0.547579675297715
-0.547500671620638
-0.5473688989837032
-0.5471678164570776
-0.5468609201183561
-0.5463740912259244
-0.5456098166035417
-0.5444243095083087
-0.5425825291141038
-0.5397111866001593
-0.5352494079472658
-0.5283587154001992
-0.5177615674646714
-0.5016203455948471
-0.477341566524333
-0.44157005600623594
-0.3904210429543758
-0.32028233397527195
-0.2294729746433504
-0.12026563323187249
4.639908163260319e-06
0.12027265842309626
0.22947082917215728
0.32027606906481815
0.3904137556095799
0.44156959369100013
0.47734118891177374
0.5016180514533682
0.5177657262939634
0.5283602674547582
0.5352593207892425
0.5397095896343662
0.5425774753372705
0.5444287203463885
0.5456119408484186
0.5463699086894024
0.5468620571315131
0.5471706194172048
0.5473657532244934
0.5474908607730234
0.547577105258779
0.5476249187047039
0.5476646750035197
0.5476876445720217
0.5476956843266757
0.5477106889612513
0.547713148198346
0.5477147945247152
0.5477139937697587
0.5477217687863348
0.5477227967251068
0.5477175431587927
0.5477216784271514
0.5477243024773478
0.5477253809401048
0.5477242019055072
0.5477219094165077
0.5477230775941766
0.5477263744807227
0.5477272121511553
0.5477270344770893
0.5477274470365135
0.5477208633637377
0.5477265853488066
0.5477194261191507
0.547725494333319
0.5477268076887711
0.5477227902975209
0.5477195511507047
0.5477190442641959
0.5477227237052894
0.547726251544142
0.5477220817850735
0.5477201481233268
0.5477274251872902
0.5477190813698929
0.5477191142793185
0.5477260254025442
0.5477207142448957
0.5477199010588804
0.5477193265726299
0.547719107433439
0.5477246641891368
0.547725270646163
-0.5477266626287679
-0.5477227583689777
-0.5477255529621762
-0.5477265312599264
-0.5477194666363653
-0.5477245611608121
-0.547723463483747
-0.5477238541265456
-0.5477255571410518
-0.5477253880616051
-0.5477265539761014
-0.5477214724246494
-0.5477250269980116
-0.5477181477009727
-0.5477244379458749
-0.5477246619176019
-0.5477221927754325
-0.5477190906446355
-0.5477222933156253
-0.5477226597675363
-0.5477262697166564
-0.5477270471705155
-0.5477225586559101
-0.5477201172016446
-0.5477256883022791
-0.5477214191648896
-0.5477176113284733
-0.5477272321343909
-0.5477218800643284
-0.547721922120585
-0.5477241685604144
-0.5477246370352017
-0.5477234535180632
-0.5477205984094492
-0.5477211773763352
-0.5477239616014373
-0.5477216395586787
-0.5477206299452272
-0.547708742847872
-0.547710991591088
-0.547698623577186
-0.5476821750364423
-0.5476616587988401
-0.5476265497013253
-0.5475731441553683
-0.5474911063678567
-0.5473693727907379
-0.5471660453735695
-0.5468605105110118
-0.5463740497387481
-0.5456157486357297
-0.5444303744624817
-0.5425778447894267
-0.5397117682695806
-0.535255364803905
-0.5283638600710593
-0.5177637086921303
-0.5016227607365256
-0.47733639405981815
-0.44156853182827416
-0.390417083601174
-0.3202782970210002
-0.22947418172174874
-0.12026830636114848
-9.823234716774189e-07
0.12027252428027456
0.22947021644995325
0.3202733624279994
0.39041925523511617
0.441577315861247
0.47734275666248643
0.5016211793089852
0.517762818228611
0.5283608750974684
0.5352581963102396
0.5397134309023475
0.5425873486227863
0.5444264435351559
0.5456097452753597
0.5463700844362352
0.5468581843007704
0.5471672739275895
0.5473662960573592
0.5474944330478864
0.5475738372846088
0.5476267972226172
0.5476668018351684
0.5476874540214395
0.5476945114457372
0.5477118228597005
0.5477133980084363
0.5477129516377335
0.5477146843751486
0.5477175082633312
0.5477230609300684
0.5477211733240387
0.5477253454721215
0.5477265245951404
0.5477247692704222
0.5477264249430968
0.5477221638243364
0.547721579252899
0.5477180070960257
0.5477274403218907
0.5477226031262644
0.5477178426075454
0.547719089787098
0.547721339868654
0.5477233331190429
0.547727497813687
0.5477252541357758
0.5477189031526596
0.547725720362235
0.5477254201628978
0.5477272773341538
0.5477268291536627
0.5477192505271087
0.5477180920991369
0.5477191792630114
0.5477257633793091
0.5477246872836636
0.547720699880817
0.5477179741496201
0.5477210755957628
0.5477226431088416
0.5477192948673146
0.5477238837262407
0.5477267733229647
-0.5477188711309383
-0.5477232149603339
-0.5477182364111136
-0.5477270625275903
-0.5477264143577888
-0.5477253788781334
-0.5477225987116245
-0.5477220917905087
-0.5477217156187993
-0.5477273671979489
-0.5477247207914095
-0.5477207097408496
-0.5477217530594009
-0.5477217628594095
-0.5477223177363192
-0.5477240833887166
-0.5477209637517537
-0.547718857262196
-0.5477184832691029
-0.547721020618725
-0.5477196658918417
-0.547719448202606
-0.5477202686125974
-0.5477189803521552
-0.547722852253393
-0.5477219358391523
-0.5477244835394905
-0.5477201375008524
-0.5477245045777955
-0.5477259570123567
-0.5477214969314826
-0.5477204253193291
-0.5477263665440681
-0.5477179161226772
-0.547723167300405
-0.5477166600489725
-0.5477219310747082
-0.5477189975286247
-0.547709092866639
-0.5477029418555786
-0.5476992727916806
-0.5476877770731555
-0.5476654747203572
-0.5476321891066566
-0.5475738300628801
-0.5474988862484972
-0.5473636048287476
-0.5471676110533161
-0.5468576215515896
-0.5463728511635046
-0.5456090830795125
-0.5444284527418359
-0.5425846375765484
-0.5397083971601938
-0.5352497351364545
-0.5283619214465914
-0.5177628127053638
-0.5016139082511211
-0.4773385494694141
-0.44157510453726556
-0.3904212281894815
-0.32027410863411554
-0.22946896820383794
-0.12026396637855978
1.117506220002117e-06
0.12027013698913172
0.22947746039301584
0.3202778634960262
0.3904138524426025
0.441575926961704
0.4773371724630639
0.5016147282842507
0.5177663154239844
0.5283594870948802
0.5352579228661859
0.5397107901015864
0.5425839418104221
0.5444310095285437
0.5456116910168808
0.5463731822009357
0.5468594036136775
0.5471725724021251
0.5473644192618915
0.5474963903037012
0.547577362578236
0.5476252352093662
0.547663226514698
0.5476887835524733
0.5477003265380832
0.5477047109432484
0.5477079751680662
0.5477182688887475
0.5477208032473518
0.5477164671419286
0.5477239734215213
0.5477259319706629
0.5477244459967856
0.5477200027309339
0.5477254097849381
0.5477216544294613
0.5477227862877039
0.5477204752209897
0.5477212340763176
0.5477188274068573
0.5477224237397933
0.5477199865162387
0.5477261619951502
0.5477196814711586
0.5477233638459659
0.5477182568046792
0.547718172740511
0.5477225013978808
0.5477213769870506
0.5477261825502169
0.5477190155569313
0.547718570466466
0.5477262231601846
0.5477267070091396
0.5477256363716735
0.5477194473979696
0.5477191449903512
0.5477260815674235
0.5477227452533541
0.5477218894140297
0.5477192534195018
0.547719316737813
0.5477194945235984
0.547725779190776
-0.5477207454313632
-0.5477272223851489
-0.5477191638672547
-0.5477233881150843
-0.5477254928208151
-0.5477264238048536
-0.5477212270849757
-0.547726046360857
-0.5477263346434629
-0.5477253286893742
-0.5477272140167784
-0.5477270605250633
-0.547727044090121
-0.5477176032777767
-0.5477256363225802
-0.5477231316294743
-0.5477195934933364
-0.5477246758470472
-0.5477186816958078
-0.5477196393438178
-0.5477253024542683
-0.5477240229831338
-0.5477182287103423
-0.5477180987823789
-0.5477241792602197
-0.547720343157158
-0.5477263012587041
-0.5477203378235417
-0.5477213704015642
-0.5477196892829506
-0.5477260939871305
-0.547720580687186
-0.5477212145388578
-0.5477221537745068
-0.5477258641176183
-0.5477162984846544
-0.5477206042404839
-0.5477193426734668
-0.5477090374389558
-0.5477090522578478
-0.5476984840712132
-0.5476858485504438
-0.5476646617517056
-0.5476265055584271
-0.5475774691113814
-0.5474986756442819
-0.5473723411279228
-0.5471703449434553
-0.5468537608010429
-0.5463711874691028
-0.5456108543507934
-0.5444272221437899
-0.5425780494341399
-0.5397073060037452
-0.535256517336224
-0.5283647656961992
-0.5177699575912108
-0.5016191843268335
-0.47734526581698267
-0.44157076009987933
-0.3904210792117711
-0.32028144404377135
-0.229471351348492
-0.12026382215179554
1.5456120407182694e-07
0.120264893473254
0.22947247948621635
0.32027824516511677
0.39041733088459457
0.44157355478257104
0.4773380490414363
0.5016166460222102
0.5177667173868086
0.5283590928296142
0.5352559538575566
0.5397159140630576
0.5425801959124847
0.544428411654108
0.5456136425578445
0.5463712476116999
0.5468583619932479
0.5471657410220092
0.5473691453253178
0.5474995412763292
0.54757881237734
0.547626994237673
0.5476633706873519
0.5476845628818003
0.5477027792017464
0.5477086257099688
0.5477160674963227
0.5477179477933459
0.5477197779588376
0.5477168890429537
0.5477208366334062
0.5477221747304178
0.5477239934132255
0.5477193261678047
0.547719769205895
0.5477216055263715
0.547725026065498
0.5477227946013608
0.5477267743055008
0.5477225205816105
0.5477243800910235
0.5477257986376117
0.5477243141567046
0.5477179316582539
0.5477239936869917
0.547724317268485
0.5477252563799038
0.5477246585132486
0.5477263802904982
0.5477239889446971
0.5477236032840984
0.5477175983842468
0.5477207436777423
0.5477220233696556
0.5477267890262245
0.5477229147154551
0.5477249295346986
0.5477194794287974
0.5477249306645259
0.5477176501383113
0.5477200428121819
0.5477193032601536
0.5477240969103764
0.5477250596305555
-0.5477230553239452
-0.5477243842681299
-0.5477232872036926
-0.5477235206087786
-0.5477274849229113
-0.5477249928487637
-0.5477200061007153
-0.5477176178019748
-0.5477224608135632
-0.5477223600900556
-0.5477256235955161
-0.5477245354151455
-0.5477256585691659
-0.5477181972738411
-0.5477252960516067
-0.5477257585651263
-0.5477191086933593
-0.5477262566532977
-0.5477242542381981
-0.547725348115076
-0.5477225266077322
-0.547719835178242
-0.5477230920440491
-0.5477265635289951
-0.547721200037678
-0.5477182047647168
-0.5477252000373873
-0.5477215374150202
-0.5477268842778471
-0.5477272927271558
-0.5477241284161831
-0.5477232053750606
-0.5477174612617494
-0.5477218229818348
-0.5477175412432564
-0.547724591837838
-0.5477171119494664
-0.5477124397582533
-0.5477151796939197
-0.5477099853569822
-0.5476978690705222
-0.547684288972324
-0.547667366482752
-0.5476267916873929
-0.5475746634648311
-0.5474925977003554
-0.5473676335172866
-0.5471674144423695
-0.5468618164493881
-0.5463756087596668
-0.5456101163076823
-0.5444231413938218
-0.5425822268119143
-0.5397062892672919
-0.5352495127571947
-0.5283616197275262
-0.5177650382214948
-0.501622018045157
-0.47734368182120746
-0.4415756382461915
-0.39042088251812246
-0.32027781008573447
-0.22946957735882118
-0.1202672110183759
1.2857244448024142e-06
0.12026609815110348
0.22946869273197593
0.3202821789297725
0.39041445892449633
0.4415724051982625
0.4773383661552383
0.501616772070067
0.5177682658992765
0.5283595186602934
0.535252628550159
0.539706898535087
0.5425848428451769
0.544423786067032
0.5456144171473427
0.5463750605569727
0.5468618450191778
0.5471648698799743
0.547366344854077
0.5474983287759841
0.5475788661814274
0.5476341151800722
0.5476674860796686
0.5476824190565913
0.5476938670643912
0.5477038202204613
0.5477082254976843
0.547711182406093
0.5477232317100132
0.5477185279460676
0.5477218715821358
0.5477193132073885
0.547723558826042
0.5477191178527349
0.5477208091639416
0.5477212017388203
0.5477266493881209
0.5477202507250222
0.547723905176536
0.5477267190183587
0.5477221783695163
0.5477213678094447
0.5477219725752049
0.5477190215104455
0.5477261531317602
0.5477264845775532
0.5477184537190736
0.5477205134805762
0.5477273861413876
0.5477180336310113
0.5477251116911603
0.5477178095627123
0.5477257835579906
0.5477230714124154
0.5477184132663506
0.5477179896193238
0.5477209664828011
0.5477239736308305
0.5477231794428509
0.547726336387182
0.5477274873933199
0.5477195115325352
0.547722148519188
0.5477176219390847
-0.5477270384241165
-0.5477178154718306
-0.5477236890384647
-0.5477259862720636
-0.5477204387138176
-0.5477263898898415
-0.547722681725559
-0.5477249816128648
-0.5477253563935264
-0.5477253753611808
-0.5477217266793807
-0.5477209555206083
-0.5477200016616817
-0.5477201660580667
-0.5477187992108791
-0.5477261474786381
-0.5477200051917498
-0.5477190471489455
-0.547720735692805
-0.5477206966388025
-0.5477230396368764
-0.5477241031614022
-0.5477264914669586
-0.5477214719872489
-0.547720748467943
-0.5477241609630942
-0.5477238187754343
-0.5477220276686116
-0.5477252878539995
-0.54772034334174
-0.5477249247199233
-0.5477200379980255
-0.5477263513340235
-0.5477230648310447
-0.5477186865868687
-0.5477214603152337
-0.5477216775020842
-0.5477182710082531
-0.5477168402106403
-0.5477066826681762
-0.5476989422370089
-0.5476883570252472
-0.5476611329601042
-0.5476294125705055
-0.547578813631043
-0.5474911226397357
-0.547369899552776
-0.5471702763906842
-0.5468600976878701
-0.5463716621702197
-0.545609547554849
-0.5444251234371934
-0.5425798868918842
-0.5397120862130838
-0.5352556372846534
-0.5283642682443482
-0.5177683399798477
-0.5016162071401151
-0.47733978281996814
-0.44157389959179527
-0.3904211912264839
-0.32027529319966364
-0.22947167373110774
-0.1202682025254093
-3.2117059728501053e-06
0.12026589129680933
0.22947205053121142
0.32027376113953443
0.3904212939799078
0.44157058558183865
0.4773430794935163
0.5016166723182081
0.5177621908792269
0.5283587303988558
0.5352577244915492
0.5397155721455891
0.5425828833153482
0.5444290669929677
0.5456078065528112
0.5463751697739786
0.5468538645833221
0.5471686360669384
0.5473648130131608
0.5474917033675607
0.5475786177575916
0.5476254787036234
0.5476630802727255
0.5476853963563714
0.5476997127721496
0.5477067323375414
0.5477155020187566
0.547714604279601
0.5477222766940498
0.5477198708119061
0.5477243925787669
0.5477177749418789
0.5477234303377477
0.5477248399347885
0.5477204760718914
0.547720644096113
0.5477194685724246
0.5477242617345875
0.547723119511833
0.5477244467495366
0.5477251169679597
0.5477249100731412
0.5477191119902574
0.5477234426104307
0.5477235519207079
0.5477215730881493
0.547727049209496
0.5477271933203256
0.5477259954814752
0.5477181020567938
0.5477229111427059
0.5477236855357399
0.5477209726904522
0.5477188549152708
0.5477220231774421
0.5477244871894369
0.5477271360518517
0.5477203005115442
0.5477272465471272
0.5477229660038909
0.5477184230430064
0.5477187985850305
0.5477247027191627
0.5477224505301563
-0.5477203887957796
-0.5477243466273655
-0.5477274727531142
-0.5477235127209327
-0.5477217011535065
-0.5477263856392327
-0.5477237562769329
-0.5477261273610236
-0.5477238628956241
-0.5477221133015163
-0.5477206561495486
-0.5477237051480577
-0.5477178302563799
-0.5477256220663003
-0.547719979954875
-0.5477200786956454
-0.5477255745683468
-0.5477227589052908
-0.5477197055689219
-0.5477200319242916
-0.5477230148553389
-0.5477246225540138
-0.5477211817354715
-0.547726306549097
-0.5477255071560175
-0.5477214620777526
-0.5477176585355699
-0.5477222433777028
-0.5477256933694766
-0.5477174674894438
-0.5477201927281833
-0.5477199480812156
-0.5477241818574841
-0.5477165474403397
-0.5477178362724976
-0.5477164522602935
-0.5477154450034303
-0.5477195130763932
-0.5477140437904969
-0.5477087297542541
-0.547697490431401
-0.5476825151169592
-0.5476585653467585
-0.5476325275787528
-0.5475739329118606
-0.547497279336408
-0.5473688527276331
-0.5471728568312706
-0.5468569924761608
-0.5463704465892723
-0.5456163402963726
-0.5444325526379066
-0.5425847065379431
-0.5397080657096991
-0.5352585086154151
-0.528364720497585
-0.51776977407337
-0.5016188087906102
-0.4773387633272432
-0.4415764016397739
-0.3904145419248202
-0.3202824947395091
-0.22946869086679417
-0.12026697090021846
-3.7050835780117943e-06
0.12026475890724889
0.2294780613243264
0.3202823997141632
0.3904150539062157
0.44157458535233785
0.47733789148758293
0.5016188526685791
0.5177682429345111
0.5283646898319421
0.535250233948203
0.5397157265682966
0.5425831245122994
0.5444303347521183
0.5456105706041136
0.5463750534651826
0.5468549269763917
0.5471663425432256
0.5473706551631036
0.5474996368379524
0.5475751909485085
0.5476328805169506
0.5476679275108252
0.5476806265882683
0.547703125672655
0.547708467054458
0.547710688742515
0.5477197361408762
0.5477135418516113
0.5477169252165931
0.5477248957599936
0.5477173337147495
0.5477193419448653
0.5477269691102863
0.5477175498399884
0.5477207788893573
0.5477259731271337
0.5477203077479308
0.5477232242785958
0.5477270743298686
0.5477233911684042
0.5477269195431009
0.5477184412724412
0.5477185323898713
0.5477223858277005
0.5477199304177452
0.5477204787215115
0.5477271680826895
0.5477210879656164
0.5477206214110242
0.5477208903015168
0.5477186716399163
0.547718075520021
0.5477256732116841
0.5477216481147583
0.5477222569854976
0.5477238153082726
0.5477210179425973
0.547726795942322
0.5477218524641577
0.5477213975464855
0.5477206496079186
0.5477238149456095
0.5477217961259141
-0.547722625482907
-0.5477203060836844
-0.5477209544118264
-0.5477201184227516
-0.5477239550762036
-0.5477221346556643
-0.5477196922139763
-0.5477205631543112
-0.5477205090096643
-0.5477258779286076
-0.5477231658741022
-0.5477238745858046
-0.5477208916168115
-0.5477265983706224
-0.5477193137193693
-0.5477209348962102
-0.5477197224368594
-0.547721304458739
-0.5477234579811546
-0.54772440695879
-0.547723333102836
-0.547721090302078
-0.5477211352939996
-0.5477185326898195
-0.5477176899919994
-0.5477206148837194
-0.5477175907228229
-0.5477220217995783
-0.5477189660281397
-0.547724005200747
-0.5477193153931575
-0.5477250538963933
-0.5477257370572992
-0.5477182198982498
-0.5477168397728571
-0.5477183077033242
-0.5477197554280384
-0.5477115676671661
-0.5477105666720328
-0.5477099459273638
-0.5477019334444523
-0.5476838350971301
-0.5476635309438
-0.5476275657647982
-0.5475763926832266
-0.5475005349805977
-0.5473708442885084
-0.5471689054070821
-0.5468608192428972
-0.5463710825628266
-0.5456078377879203
-0.5444257122383823
-0.5425831954771052
-0.5397147572276416
-0.5352518808509507
-0.5283572343089022
-0.5177625947100639
-0.5016128031334753
-0.47734254575857815
-0.4415732816368486
-0.39041388460193527
-0.3202757812524574
-0.22947358432841627
-0.12027112487465108
3.182443317095717e-06
0.12026867744989582
0.22947819909282555
0.32028056496439944
0.390418289961479
0.44157446999503447
0.4773454174791904
0.5016224621028124
0.5177615404603583
0.5283593623786135
0.5352591991258411
0.5397151287518109
0.5425801094774101
0.5444269626679789
0.5456112579018834
0.5463676423741507
0.5468585404429354
0.5471669143604966
0.547371085215405
0.5474979724652969
0.5475822751082566
0.5476326228041093
0.5476586603954211
0.5476873147893337
0.5476972561901104
0.5477084575202502
0.5477088560479343
0.547719414050061
0.5477162680605262
0.5477214781551881
0.5477214873554267
0.5477185184870944
0.5477172843321556
0.5477223878442116
0.5477268554721393
0.5477202225420058
0.5477178359368677
0.5477203727176368
0.5477208632481143
0.5477251189888559
0.5477202790347915
0.547719193846663
0.5477180812747829
0.5477258863275761
0.5477224781918114
0.5477238427792889
0.547726775002317
0.547726322605931
0.5477203925260152
0.5477253584676092
0.5477252756264674
0.5477200456177632
0.5477219171828396
0.547719670472182
0.5477255107488889
0.5477212899907641
0.5477263862889079
0.5477192463776466
0.547718536566016
0.5477257200316465
0.5477178576900988
0.5477266795220143
0.5477205468888683
0.5477176144686767
-0.5477265771279198
-0.5477206571857277
-0.5477256652662513
-0.5477216510045712
-0.5477267062560502
-0.5477226834308285
-0.5477230552502615
-0.5477263679955597
-0.5477203393487087
-0.5477225829802097
-0.5477208658335415
-0.5477274310505165
-0.5477180227239623
-0.5477209391774285
-0.5477220138933855
-0.5477269389434591
-0.5477226171666963
-0.547724196710936
-0.547724891730681
-0.5477263483221468
-0.5477213315411525
-0.547720877887314
-0.547724260981287
-0.5477189072457199
-0.547726642706461
-0.5477202236268567
-0.5477243059643917
-0.5477273879448479
-0.5477211032283335
-0.5477216938808048
-0.5477263188968488
-0.5477244982461699
-0.5477175321884561
-0.547717444007666
-0.5477256875123676
-0.5477161341031556
-0.5477140527995963
-0.5477199025672914
-0.5477174663506059
-0.5477087662366281
-0.5477023246881886
-0.5476845221613722
-0.5476598519781369
-0.5476249180537073
-0.5475779341139239
-0.5474990983471929
-0.54736963545192
-0.5471699614181799
-0.5468578913956728
-0.5463741924261327
-0.5456122584334075
-0.544428673955434
-0.54258623662877
-0.5397088532802016
-0.5352576248118621
-0.5283574211457929
-0.5177637594156194
-0.5016217885287171
-0.4773419328924817
-0.44157316579703443
-0.3904208611447564
-0.3202749160718015
-0.22947293341236305
-0.12027225030224926
-1.446714732119986e-06
0.1202709609373911
0.22947812604424972
0.32028001076463547
0.39042119378737283
0.44157553582815556
0.477336729127983
0.5016176572195485
0.5177706323525281
0.5283640422765207
0.5352580276171263
0.5397098214778945
0.5425808103131654
0.5444303121668196
0.5456122999272849
0.5463678770198559
0.5468534824559806
0.547171331134923
0.5473699548890257
0.5474910058832257
0.5475768080191004
0.5476263150641102
0.5476588772263118
0.5476864187498088
0.5476964534864985
0.5477039295016798
0.5477124828630349
0.5477158022790436
0.5477165583614834
0.5477235399722181
0.5477199877370426